# vtk DataFile Version 3.0
vtk output
ASCII
DATASET POLYDATA
POINTS 168 float
38.3823 43.0439 38.2015 38.417 43.0086 38.2101 38.5224 42.9337 38.2724 
38.6606 42.8205 38.3374 38.7563 42.7412 38.3814 38.9493 42.5978 38.4886 
39.0032 42.5484 38.5079 39.1935 42.4065 38.6132 39.2586 42.3481 38.638 
39.3945 42.2358 38.7008 39.4183 42.2169 38.7126 39.5132 42.1318 38.7489 
39.5639 42.0861 38.7681 39.5708 42.0791 38.7698 39.7179 41.9372 38.8149 
39.8814 41.7943 38.8816 39.9283 41.7472 38.8939 40.0185 41.6722 38.9351 
40.1442 41.5671 38.9917 40.1821 41.5428 39.017 40.2898 41.4637 39.0779 
40.3174 41.4423 39.0923 40.3463 41.4188 39.106 40.4555 41.3305 39.1586 
40.5153 41.2867 39.1926 40.6569 41.1636 39.2512 40.8222 41.0171 39.3164 
40.8947 40.9614 39.3545 40.938 40.9282 39.3774 41.1429 40.7627 39.4762 
41.1738 40.7407 39.4945 41.2081 40.7184 39.5172 41.4064 40.5884 39.6469 
41.4573 40.5614 39.6872 41.5981 40.4931 39.8062 41.6249 40.4803 39.8291 
41.642 40.4743 39.846 41.8111 40.4211 40.0214 41.9689 40.368 40.181 
42.017 40.355 40.2332 42.059 40.3436 40.2788 42.2264 40.311 40.4749 
42.2767 40.3012 40.5338 42.3008 40.2981 40.5639 42.3474 40.2989 40.6294 
42.5251 40.2969 40.8742 42.6147 40.3152 41.0193 42.7103 40.3434 41.1838 
42.8485 40.4305 41.4737 42.8599 40.4399 41.5002 42.8709 40.453 41.5301 
42.9445 40.5442 41.7348 42.9847 40.6536 41.9135 42.988 40.6634 41.9291 
42.989 40.6677 41.9354 42.9996 40.7245 42.0138 43.0196 40.8361 42.167 
43.021 40.844 42.1778 43.0227 40.8539 42.1913 43.0337 40.9607 42.3266 
43.0341 40.9867 42.3563 43.0373 41.1049 42.4935 43.0391 41.1409 42.5364 
43.0406 41.175 42.5769 43.0418 41.2659 42.6805 43.0394 41.3068 42.723 
43.0381 41.4306 42.8604 43.0357 41.474 42.9058 43.0344 41.5125 42.9472 
43.0305 41.5862 43.0245 43.023 41.6352 43.0692 43.0023 41.7695 43.1913 
42.9909 41.8217 43.234 42.9744 41.8809 43.2775 42.943 42.0124 43.3815 
42.9063 42.1218 43.4534 42.886 42.1845 43.4956 42.838 42.3093 43.5691 
42.8065 42.3871 43.6127 42.7829 42.4391 43.6383 42.7046 42.6152 43.7273 
42.6082 42.814 43.8164 42.5835 42.8657 43.8402 42.5351 42.961 43.8801 
42.4453 43.1295 43.9445 42.3924 43.2286 43.9822 42.3256 43.3483 44.0239 
42.2629 43.4533 44.0546 42.171 43.5897 44.08 42.1092 43.6899 44.1068 
41.9011 43.9987 44.1643 41.8965 44.0056 44.1656 41.8955 44.0069 44.1658 
41.8943 44.0086 44.1659 41.6827 44.3047 44.2045 41.6275 44.3784 44.2104 
41.478 44.5759 44.2245 41.3676 44.7231 44.2363 41.2633 44.8542 44.2386 
41.1869 44.9503 44.2404 41.1189 45.0286 44.2338 40.9223 45.2511 44.2105 
40.8831 45.294 44.2042 40.8172 45.3597 44.1864 40.6437 45.5361 44.1433 
40.5884 45.5902 44.1272 40.4549 45.6985 44.0633 40.3844 45.7578 44.0319 
40.3265 45.7969 43.9953 40.146 45.9214 43.8843 40.0462 45.9761 43.807 
39.932 46.0357 43.7154 39.8385 46.0785 43.6335 39.7041 46.1305 43.505 
39.6524 46.1525 43.4578 39.4485 46.213 43.2423 39.4349 46.217 43.2281 
39.2052 46.2898 42.9906 39.1317 46.3138 42.9154 39.0417 46.3293 42.8077 
38.851 46.3454 42.5607 38.7891 46.3535 42.4839 38.7206 46.3642 42.4007 
38.5855 46.3649 42.2136 38.5035 46.3719 42.1075 38.4669 46.3751 42.0602 
38.3267 46.3433 41.8297 38.3102 46.3403 41.8034 38.2613 46.3296 41.7234 
38.1899 46.3186 41.6119 38.1299 46.3094 41.5181 38.1092 46.3041 41.4834 
38.0752 46.2871 41.4171 37.9404 46.2516 41.1899 37.8199 46.1574 40.9166 
37.808 46.1508 40.8926 37.799 46.1487 40.8778 37.7816 46.1358 40.839 
37.691 46.055 40.6224 37.6507 45.9689 40.4698 37.616 45.9498 40.4001 
37.5992 45.9255 40.3494 37.5937 45.8233 40.2269 37.5875 45.787 40.1776 
37.5817 45.7266 40.1017 37.5368 45.6394 39.9413 37.5527 45.5742 39.8903 
37.6228 45.3188 39.7008 37.6182 45.3104 39.685 37.6198 45.2991 39.6745 
37.6327 45.2797 39.6707 37.7228 45.0228 39.5073 37.8195 44.8969 39.5004 
37.8398 44.8626 39.4901 37.8993 44.6842 39.3724 37.9017 44.6495 39.3368 
37.9518 44.3666 39.0887 37.9367 44.3545 39.0542 37.9324 44.3099 38.998 
37.9236 44.0484 38.6921 37.9422 43.9904 38.6528 37.9675 43.9555 38.6488 
38.0186 43.7229 38.4586 38.0643 43.5767 38.3579 38.1409 43.4515 38.3237 
38.1908 43.3221 38.2479 38.2173 43.267 38.2227 38.3087 43.1554 38.2244 

LINES 168 504
2 0 1 
2 1 2 
2 2 3 
2 3 4 
2 4 5 
2 5 6 
2 6 7 
2 7 8 
2 8 9 
2 9 10 
2 10 11 
2 11 12 
2 12 13 
2 13 14 
2 14 15 
2 15 16 
2 16 17 
2 17 18 
2 18 19 
2 19 20 
2 20 21 
2 21 22 
2 22 23 
2 23 24 
2 24 25 
2 25 26 
2 26 27 
2 27 28 
2 28 29 
2 29 30 
2 30 31 
2 31 32 
2 32 33 
2 33 34 
2 34 35 
2 35 36 
2 36 37 
2 37 38 
2 38 39 
2 39 40 
2 40 41 
2 41 42 
2 42 43 
2 43 44 
2 44 45 
2 45 46 
2 46 47 
2 47 48 
2 48 49 
2 49 50 
2 50 51 
2 51 52 
2 52 53 
2 53 54 
2 54 55 
2 55 56 
2 56 57 
2 57 58 
2 58 59 
2 59 60 
2 60 61 
2 61 62 
2 62 63 
2 63 64 
2 64 65 
2 65 66 
2 66 67 
2 67 68 
2 68 69 
2 69 70 
2 70 71 
2 71 72 
2 72 73 
2 73 74 
2 74 75 
2 75 76 
2 76 77 
2 77 78 
2 78 79 
2 79 80 
2 80 81 
2 81 82 
2 82 83 
2 83 84 
2 84 85 
2 85 86 
2 86 87 
2 87 88 
2 88 89 
2 89 90 
2 90 91 
2 91 92 
2 92 93 
2 93 94 
2 94 95 
2 95 96 
2 96 97 
2 97 98 
2 98 99 
2 99 100 
2 100 101 
2 101 102 
2 102 103 
2 103 104 
2 104 105 
2 105 106 
2 106 107 
2 107 108 
2 108 109 
2 109 110 
2 110 111 
2 111 112 
2 112 113 
2 113 114 
2 114 115 
2 115 116 
2 116 117 
2 117 118 
2 118 119 
2 119 120 
2 120 121 
2 121 122 
2 122 123 
2 123 124 
2 124 125 
2 125 126 
2 126 127 
2 127 128 
2 128 129 
2 129 130 
2 130 131 
2 131 132 
2 132 133 
2 133 134 
2 134 135 
2 135 136 
2 136 137 
2 137 138 
2 138 139 
2 139 140 
2 140 141 
2 141 142 
2 142 143 
2 143 144 
2 144 145 
2 145 146 
2 146 147 
2 147 148 
2 148 149 
2 149 150 
2 150 151 
2 151 152 
2 152 153 
2 153 154 
2 154 155 
2 155 156 
2 156 157 
2 157 158 
2 158 159 
2 159 160 
2 160 161 
2 161 162 
2 162 163 
2 163 164 
2 164 165 
2 165 166 
2 166 167 
2 167 0 

CELL_DATA 168
FIELD FieldData 6
ClosedSection 1 168 int
1 1 1 1 1 1 1 1 1 
1 1 1 1 1 1 1 1 1 
1 1 1 1 1 1 1 1 1 
1 1 1 1 1 1 1 1 1 
1 1 1 1 1 1 1 1 1 
1 1 1 1 1 1 1 1 1 
1 1 1 1 1 1 1 1 1 
1 1 1 1 1 1 1 1 1 
1 1 1 1 1 1 1 1 1 
1 1 1 1 1 1 1 1 1 
1 1 1 1 1 1 1 1 1 
1 1 1 1 1 1 1 1 1 
1 1 1 1 1 1 1 1 1 
1 1 1 1 1 1 1 1 1 
1 1 1 1 1 1 1 1 1 
1 1 1 1 1 1 1 1 1 
1 1 1 1 1 1 1 1 1 
1 1 1 1 1 1 1 1 1 
1 1 1 1 1 1 
SectionArea 1 168 double
38.6877 38.6877 38.6877 38.6877 38.6877 38.6877 38.6877 38.6877 38.6877 
38.6877 38.6877 38.6877 38.6877 38.6877 38.6877 38.6877 38.6877 38.6877 
38.6877 38.6877 38.6877 38.6877 38.6877 38.6877 38.6877 38.6877 38.6877 
38.6877 38.6877 38.6877 38.6877 38.6877 38.6877 38.6877 38.6877 38.6877 
38.6877 38.6877 38.6877 38.6877 38.6877 38.6877 38.6877 38.6877 38.6877 
38.6877 38.6877 38.6877 38.6877 38.6877 38.6877 38.6877 38.6877 38.6877 
38.6877 38.6877 38.6877 38.6877 38.6877 38.6877 38.6877 38.6877 38.6877 
38.6877 38.6877 38.6877 38.6877 38.6877 38.6877 38.6877 38.6877 38.6877 
38.6877 38.6877 38.6877 38.6877 38.6877 38.6877 38.6877 38.6877 38.6877 
38.6877 38.6877 38.6877 38.6877 38.6877 38.6877 38.6877 38.6877 38.6877 
38.6877 38.6877 38.6877 38.6877 38.6877 38.6877 38.6877 38.6877 38.6877 
38.6877 38.6877 38.6877 38.6877 38.6877 38.6877 38.6877 38.6877 38.6877 
38.6877 38.6877 38.6877 38.6877 38.6877 38.6877 38.6877 38.6877 38.6877 
38.6877 38.6877 38.6877 38.6877 38.6877 38.6877 38.6877 38.6877 38.6877 
38.6877 38.6877 38.6877 38.6877 38.6877 38.6877 38.6877 38.6877 38.6877 
38.6877 38.6877 38.6877 38.6877 38.6877 38.6877 38.6877 38.6877 38.6877 
38.6877 38.6877 38.6877 38.6877 38.6877 38.6877 38.6877 38.6877 38.6877 
38.6877 38.6877 38.6877 38.6877 38.6877 38.6877 38.6877 38.6877 38.6877 
38.6877 38.6877 38.6877 38.6877 38.6877 38.6877 
SectionLength 1 168 double
22.6529 22.6529 22.6529 22.6529 22.6529 22.6529 22.6529 22.6529 22.6529 
22.6529 22.6529 22.6529 22.6529 22.6529 22.6529 22.6529 22.6529 22.6529 
22.6529 22.6529 22.6529 22.6529 22.6529 22.6529 22.6529 22.6529 22.6529 
22.6529 22.6529 22.6529 22.6529 22.6529 22.6529 22.6529 22.6529 22.6529 
22.6529 22.6529 22.6529 22.6529 22.6529 22.6529 22.6529 22.6529 22.6529 
22.6529 22.6529 22.6529 22.6529 22.6529 22.6529 22.6529 22.6529 22.6529 
22.6529 22.6529 22.6529 22.6529 22.6529 22.6529 22.6529 22.6529 22.6529 
22.6529 22.6529 22.6529 22.6529 22.6529 22.6529 22.6529 22.6529 22.6529 
22.6529 22.6529 22.6529 22.6529 22.6529 22.6529 22.6529 22.6529 22.6529 
22.6529 22.6529 22.6529 22.6529 22.6529 22.6529 22.6529 22.6529 22.6529 
22.6529 22.6529 22.6529 22.6529 22.6529 22.6529 22.6529 22.6529 22.6529 
22.6529 22.6529 22.6529 22.6529 22.6529 22.6529 22.6529 22.6529 22.6529 
22.6529 22.6529 22.6529 22.6529 22.6529 22.6529 22.6529 22.6529 22.6529 
22.6529 22.6529 22.6529 22.6529 22.6529 22.6529 22.6529 22.6529 22.6529 
22.6529 22.6529 22.6529 22.6529 22.6529 22.6529 22.6529 22.6529 22.6529 
22.6529 22.6529 22.6529 22.6529 22.6529 22.6529 22.6529 22.6529 22.6529 
22.6529 22.6529 22.6529 22.6529 22.6529 22.6529 22.6529 22.6529 22.6529 
22.6529 22.6529 22.6529 22.6529 22.6529 22.6529 22.6529 22.6529 22.6529 
22.6529 22.6529 22.6529 22.6529 22.6529 22.6529 
SectionMinSize 1 168 double
2.89627 2.89627 2.89627 2.89627 2.89627 2.89627 2.89627 2.89627 2.89627 
2.89627 2.89627 2.89627 2.89627 2.89627 2.89627 2.89627 2.89627 2.89627 
2.89627 2.89627 2.89627 2.89627 2.89627 2.89627 2.89627 2.89627 2.89627 
2.89627 2.89627 2.89627 2.89627 2.89627 2.89627 2.89627 2.89627 2.89627 
2.89627 2.89627 2.89627 2.89627 2.89627 2.89627 2.89627 2.89627 2.89627 
2.89627 2.89627 2.89627 2.89627 2.89627 2.89627 2.89627 2.89627 2.89627 
2.89627 2.89627 2.89627 2.89627 2.89627 2.89627 2.89627 2.89627 2.89627 
2.89627 2.89627 2.89627 2.89627 2.89627 2.89627 2.89627 2.89627 2.89627 
2.89627 2.89627 2.89627 2.89627 2.89627 2.89627 2.89627 2.89627 2.89627 
2.89627 2.89627 2.89627 2.89627 2.89627 2.89627 2.89627 2.89627 2.89627 
2.89627 2.89627 2.89627 2.89627 2.89627 2.89627 2.89627 2.89627 2.89627 
2.89627 2.89627 2.89627 2.89627 2.89627 2.89627 2.89627 2.89627 2.89627 
2.89627 2.89627 2.89627 2.89627 2.89627 2.89627 2.89627 2.89627 2.89627 
2.89627 2.89627 2.89627 2.89627 2.89627 2.89627 2.89627 2.89627 2.89627 
2.89627 2.89627 2.89627 2.89627 2.89627 2.89627 2.89627 2.89627 2.89627 
2.89627 2.89627 2.89627 2.89627 2.89627 2.89627 2.89627 2.89627 2.89627 
2.89627 2.89627 2.89627 2.89627 2.89627 2.89627 2.89627 2.89627 2.89627 
2.89627 2.89627 2.89627 2.89627 2.89627 2.89627 2.89627 2.89627 2.89627 
2.89627 2.89627 2.89627 2.89627 2.89627 2.89627 
SectionMaxSize 1 168 double
3.9563 3.9563 3.9563 3.9563 3.9563 3.9563 3.9563 3.9563 3.9563 
3.9563 3.9563 3.9563 3.9563 3.9563 3.9563 3.9563 3.9563 3.9563 
3.9563 3.9563 3.9563 3.9563 3.9563 3.9563 3.9563 3.9563 3.9563 
3.9563 3.9563 3.9563 3.9563 3.9563 3.9563 3.9563 3.9563 3.9563 
3.9563 3.9563 3.9563 3.9563 3.9563 3.9563 3.9563 3.9563 3.9563 
3.9563 3.9563 3.9563 3.9563 3.9563 3.9563 3.9563 3.9563 3.9563 
3.9563 3.9563 3.9563 3.9563 3.9563 3.9563 3.9563 3.9563 3.9563 
3.9563 3.9563 3.9563 3.9563 3.9563 3.9563 3.9563 3.9563 3.9563 
3.9563 3.9563 3.9563 3.9563 3.9563 3.9563 3.9563 3.9563 3.9563 
3.9563 3.9563 3.9563 3.9563 3.9563 3.9563 3.9563 3.9563 3.9563 
3.9563 3.9563 3.9563 3.9563 3.9563 3.9563 3.9563 3.9563 3.9563 
3.9563 3.9563 3.9563 3.9563 3.9563 3.9563 3.9563 3.9563 3.9563 
3.9563 3.9563 3.9563 3.9563 3.9563 3.9563 3.9563 3.9563 3.9563 
3.9563 3.9563 3.9563 3.9563 3.9563 3.9563 3.9563 3.9563 3.9563 
3.9563 3.9563 3.9563 3.9563 3.9563 3.9563 3.9563 3.9563 3.9563 
3.9563 3.9563 3.9563 3.9563 3.9563 3.9563 3.9563 3.9563 3.9563 
3.9563 3.9563 3.9563 3.9563 3.9563 3.9563 3.9563 3.9563 3.9563 
3.9563 3.9563 3.9563 3.9563 3.9563 3.9563 3.9563 3.9563 3.9563 
3.9563 3.9563 3.9563 3.9563 3.9563 3.9563 
SectionShapeFactor 1 168 double
0.732065 0.732065 0.732065 0.732065 0.732065 0.732065 0.732065 0.732065 0.732065 
0.732065 0.732065 0.732065 0.732065 0.732065 0.732065 0.732065 0.732065 0.732065 
0.732065 0.732065 0.732065 0.732065 0.732065 0.732065 0.732065 0.732065 0.732065 
0.732065 0.732065 0.732065 0.732065 0.732065 0.732065 0.732065 0.732065 0.732065 
0.732065 0.732065 0.732065 0.732065 0.732065 0.732065 0.732065 0.732065 0.732065 
0.732065 0.732065 0.732065 0.732065 0.732065 0.732065 0.732065 0.732065 0.732065 
0.732065 0.732065 0.732065 0.732065 0.732065 0.732065 0.732065 0.732065 0.732065 
0.732065 0.732065 0.732065 0.732065 0.732065 0.732065 0.732065 0.732065 0.732065 
0.732065 0.732065 0.732065 0.732065 0.732065 0.732065 0.732065 0.732065 0.732065 
0.732065 0.732065 0.732065 0.732065 0.732065 0.732065 0.732065 0.732065 0.732065 
0.732065 0.732065 0.732065 0.732065 0.732065 0.732065 0.732065 0.732065 0.732065 
0.732065 0.732065 0.732065 0.732065 0.732065 0.732065 0.732065 0.732065 0.732065 
0.732065 0.732065 0.732065 0.732065 0.732065 0.732065 0.732065 0.732065 0.732065 
0.732065 0.732065 0.732065 0.732065 0.732065 0.732065 0.732065 0.732065 0.732065 
0.732065 0.732065 0.732065 0.732065 0.732065 0.732065 0.732065 0.732065 0.732065 
0.732065 0.732065 0.732065 0.732065 0.732065 0.732065 0.732065 0.732065 0.732065 
0.732065 0.732065 0.732065 0.732065 0.732065 0.732065 0.732065 0.732065 0.732065 
0.732065 0.732065 0.732065 0.732065 0.732065 0.732065 0.732065 0.732065 0.732065 
0.732065 0.732065 0.732065 0.732065 0.732065 0.732065 
